M 0.00000 0 (5.00, 2.00, 0.00), (5.00, 2.00), 0.00
M 0.00000 1 (5.00, 2.00, 0.00), (5.00, 2.00), 0.00
M 0.00000 2 (5.00, 2.00, 0.00), (5.00, 2.00), 0.00
M 0.00000 3 (5.00, 2.00, 0.00), (5.00, 2.00), 0.00
M 0.00000 4 (5.00, 2.00, 0.00), (5.00, 2.00), 0.00
M 0.00000 5 (5.00, 2.00, 0.00), (5.00, 2.00), 0.00
M 0.00000 6 (5.00, 2.00, 0.00), (5.00, 2.00), 0.00
M 0.00000 7 (5.00, 2.00, 0.00), (5.00, 2.00), 0.00
M 0.00000 8 (5.00, 2.00, 0.00), (5.00, 2.00), 0.00
M 0.00000 9 (5.00, 2.00, 0.00), (5.00, 2.00), 0.00
s 0.500000000 _0_ AGT  --- 0 tcp 40 [0 0 0 0] ------- [0:0 1:0 32 0] [0 0] 0 0
r 0.500000000 _0_ RTR  --- 0 tcp 40 [0 0 0 0] ------- [0:0 1:0 32 0] [0 0] 0 0
s 0.500000000 _0_ RTR  --- 0 tcp 40 [0 0 0 0] ------- [0:0 1:0 32 0] [0 0] 0 0
s 0.500005000 _0_ MAC  --- 0 ARP 56 [0 ffffffff 0 0] ------- [REQUEST 0/0 0/1]
r 0.500105000 _1_ MAC  --- 0 ARP 28 [0 ffffffff 0 0] ------- [REQUEST 0/0 0/1]
r 0.500105000 _2_ MAC  --- 0 ARP 28 [0 ffffffff 0 0] ------- [REQUEST 0/0 0/1]
r 0.500105000 _3_ MAC  --- 0 ARP 28 [0 ffffffff 0 0] ------- [REQUEST 0/0 0/1]
r 0.500105000 _4_ MAC  --- 0 ARP 28 [0 ffffffff 0 0] ------- [REQUEST 0/0 0/1]
r 0.500105000 _5_ MAC  --- 0 ARP 28 [0 ffffffff 0 0] ------- [REQUEST 0/0 0/1]
r 0.500105000 _6_ MAC  --- 0 ARP 28 [0 ffffffff 0 0] ------- [REQUEST 0/0 0/1]
r 0.500105000 _7_ MAC  --- 0 ARP 28 [0 ffffffff 0 0] ------- [REQUEST 0/0 0/1]
r 0.500105000 _8_ MAC  --- 0 ARP 28 [0 ffffffff 0 0] ------- [REQUEST 0/0 0/1]
r 0.500105000 _9_ MAC  --- 0 ARP 28 [0 ffffffff 0 0] ------- [REQUEST 0/0 0/1]
r 0.500105000 _10_ MAC  --- 0 ARP 28 [0 ffffffff 0 0] ------- [REQUEST 0/0 0/1]
r 0.500105000 _11_ MAC  --- 0 ARP 28 [0 ffffffff 0 0] ------- [REQUEST 0/0 0/1]
r 0.500105000 _12_ MAC  --- 0 ARP 28 [0 ffffffff 0 0] ------- [REQUEST 0/0 0/1]
r 0.500105000 _13_ MAC  --- 0 ARP 28 [0 ffffffff 0 0] ------- [REQUEST 0/0 0/1]
r 0.500105000 _14_ MAC  --- 0 ARP 28 [0 ffffffff 0 0] ------- [REQUEST 0/0 0/1]
r 0.500105000 _15_ MAC  --- 0 ARP 28 [0 ffffffff 0 0] ------- [REQUEST 0/0 0/1]
r 0.500105000 _16_ MAC  --- 0 ARP 28 [0 ffffffff 0 0] ------- [REQUEST 0/0 0/1]
r 0.500105000 _17_ MAC  --- 0 ARP 28 [0 ffffffff 0 0] ------- [REQUEST 0/0 0/1]
r 0.500105000 _18_ MAC  --- 0 ARP 28 [0 ffffffff 0 0] ------- [REQUEST 0/0 0/1]
r 0.500105000 _19_ MAC  --- 0 ARP 28 [0 ffffffff 0 0] ------- [REQUEST 0/0 0/1]
r 0.500105000 _20_ MAC  --- 0 ARP 28 [0 ffffffff 0 0] ------- [REQUEST 0/0 0/1]
r 0.500105000 _21_ MAC  --- 0 ARP 28 [0 ffffffff 0 0] ------- [REQUEST 0/0 0/1]
r 0.500105000 _22_ MAC  --- 0 ARP 28 [0 ffffffff 0 0] ------- [REQUEST 0/0 0/1]
r 0.500105000 _23_ MAC  --- 0 ARP 28 [0 ffffffff 0 0] ------- [REQUEST 0/0 0/1]
r 0.500105000 _24_ MAC  --- 0 ARP 28 [0 ffffffff 0 0] ------- [REQUEST 0/0 0/1]
r 0.500105000 _25_ MAC  --- 0 ARP 28 [0 ffffffff 0 0] ------- [REQUEST 0/0 0/1]
r 0.500105000 _26_ MAC  --- 0 ARP 28 [0 ffffffff 0 0] ------- [REQUEST 0/0 0/1]
r 0.500105000 _27_ MAC  --- 0 ARP 28 [0 ffffffff 0 0] ------- [REQUEST 0/0 0/1]
r 0.500105000 _28_ MAC  --- 0 ARP 28 [0 ffffffff 0 0] ------- [REQUEST 0/0 0/1]
r 0.500105000 _29_ MAC  --- 0 ARP 28 [0 ffffffff 0 0] ------- [REQUEST 0/0 0/1]
r 0.500105000 _30_ MAC  --- 0 ARP 28 [0 ffffffff 0 0] ------- [REQUEST 0/0 0/1]
r 0.500105000 _31_ MAC  --- 0 ARP 28 [0 ffffffff 0 0] ------- [REQUEST 0/0 0/1]
r 0.500105000 _32_ MAC  --- 0 ARP 28 [0 ffffffff 0 0] ------- [REQUEST 0/0 0/1]
r 0.500105000 _33_ MAC  --- 0 ARP 28 [0 ffffffff 0 0] ------- [REQUEST 0/0 0/1]
r 0.500105000 _34_ MAC  --- 0 ARP 28 [0 ffffffff 0 0] ------- [REQUEST 0/0 0/1]
r 0.500105000 _35_ MAC  --- 0 ARP 28 [0 ffffffff 0 0] ------- [REQUEST 0/0 0/1]
r 0.500105000 _36_ MAC  --- 0 ARP 28 [0 ffffffff 0 0] ------- [REQUEST 0/0 0/1]
r 0.500105000 _37_ MAC  --- 0 ARP 28 [0 ffffffff 0 0] ------- [REQUEST 0/0 0/1]
r 0.500105000 _38_ MAC  --- 0 ARP 28 [0 ffffffff 0 0] ------- [REQUEST 0/0 0/1]
r 0.500105000 _39_ MAC  --- 0 ARP 28 [0 ffffffff 0 0] ------- [REQUEST 0/0 0/1]
r 0.500105000 _40_ MAC  --- 0 ARP 28 [0 ffffffff 0 0] ------- [REQUEST 0/0 0/1]
r 0.500105000 _41_ MAC  --- 0 ARP 28 [0 ffffffff 0 0] ------- [REQUEST 0/0 0/1]
r 0.500105000 _42_ MAC  --- 0 ARP 28 [0 ffffffff 0 0] ------- [REQUEST 0/0 0/1]
r 0.500105000 _43_ MAC  --- 0 ARP 28 [0 ffffffff 0 0] ------- [REQUEST 0/0 0/1]
r 0.500105000 _44_ MAC  --- 0 ARP 28 [0 ffffffff 0 0] ------- [REQUEST 0/0 0/1]
r 0.500105000 _45_ MAC  --- 0 ARP 28 [0 ffffffff 0 0] ------- [REQUEST 0/0 0/1]
r 0.500105000 _46_ MAC  --- 0 ARP 28 [0 ffffffff 0 0] ------- [REQUEST 0/0 0/1]
r 0.500105000 _47_ MAC  --- 0 ARP 28 [0 ffffffff 0 0] ------- [REQUEST 0/0 0/1]
r 0.500105000 _48_ MAC  --- 0 ARP 28 [0 ffffffff 0 0] ------- [REQUEST 0/0 0/1]
r 0.500105000 _49_ MAC  --- 0 ARP 28 [0 ffffffff 0 0] ------- [REQUEST 0/0 0/1]
r 0.500106810 _50_ MAC  --- 0 ARP 28 [0 ffffffff 0 0] ------- [REQUEST 0/0 0/1]
r 0.500106810 _51_ MAC  --- 0 ARP 28 [0 ffffffff 0 0] ------- [REQUEST 0/0 0/1]
r 0.500106810 _52_ MAC  --- 0 ARP 28 [0 ffffffff 0 0] ------- [REQUEST 0/0 0/1]
r 0.500106810 _53_ MAC  --- 0 ARP 28 [0 ffffffff 0 0] ------- [REQUEST 0/0 0/1]
r 0.500106810 _54_ MAC  --- 0 ARP 28 [0 ffffffff 0 0] ------- [REQUEST 0/0 0/1]
r 0.500106810 _55_ MAC  --- 0 ARP 28 [0 ffffffff 0 0] ------- [REQUEST 0/0 0/1]
r 0.500106810 _56_ MAC  --- 0 ARP 28 [0 ffffffff 0 0] ------- [REQUEST 0/0 0/1]
r 0.500106810 _57_ MAC  --- 0 ARP 28 [0 ffffffff 0 0] ------- [REQUEST 0/0 0/1]
r 0.500106810 _58_ MAC  --- 0 ARP 28 [0 ffffffff 0 0] ------- [REQUEST 0/0 0/1]
r 0.500106810 _59_ MAC  --- 0 ARP 28 [0 ffffffff 0 0] ------- [REQUEST 0/0 0/1]
r 0.500106810 _60_ MAC  --- 0 ARP 28 [0 ffffffff 0 0] ------- [REQUEST 0/0 0/1]
r 0.500106810 _61_ MAC  --- 0 ARP 28 [0 ffffffff 0 0] ------- [REQUEST 0/0 0/1]
r 0.500106810 _62_ MAC  --- 0 ARP 28 [0 ffffffff 0 0] ------- [REQUEST 0/0 0/1]
r 0.500106810 _63_ MAC  --- 0 ARP 28 [0 ffffffff 0 0] ------- [REQUEST 0/0 0/1]
r 0.500106810 _64_ MAC  --- 0 ARP 28 [0 ffffffff 0 0] ------- [REQUEST 0/0 0/1]
r 0.500106810 _65_ MAC  --- 0 ARP 28 [0 ffffffff 0 0] ------- [REQUEST 0/0 0/1]
r 0.500106810 _66_ MAC  --- 0 ARP 28 [0 ffffffff 0 0] ------- [REQUEST 0/0 0/1]
r 0.500106810 _67_ MAC  --- 0 ARP 28 [0 ffffffff 0 0] ------- [REQUEST 0/0 0/1]
r 0.500106810 _68_ MAC  --- 0 ARP 28 [0 ffffffff 0 0] ------- [REQUEST 0/0 0/1]
r 0.500106810 _69_ MAC  --- 0 ARP 28 [0 ffffffff 0 0] ------- [REQUEST 0/0 0/1]
r 0.500106810 _70_ MAC  --- 0 ARP 28 [0 ffffffff 0 0] ------- [REQUEST 0/0 0/1]
r 0.500106810 _71_ MAC  --- 0 ARP 28 [0 ffffffff 0 0] ------- [REQUEST 0/0 0/1]
r 0.500106810 _72_ MAC  --- 0 ARP 28 [0 ffffffff 0 0] ------- [REQUEST 0/0 0/1]
r 0.500106810 _73_ MAC  --- 0 ARP 28 [0 ffffffff 0 0] ------- [REQUEST 0/0 0/1]
r 0.500106810 _74_ MAC  --- 0 ARP 28 [0 ffffffff 0 0] ------- [REQUEST 0/0 0/1]
r 0.500106810 _75_ MAC  --- 0 ARP 28 [0 ffffffff 0 0] ------- [REQUEST 0/0 0/1]
r 0.500106810 _76_ MAC  --- 0 ARP 28 [0 ffffffff 0 0] ------- [REQUEST 0/0 0/1]
r 0.500106810 _77_ MAC  --- 0 ARP 28 [0 ffffffff 0 0] ------- [REQUEST 0/0 0/1]
r 0.500106810 _78_ MAC  --- 0 ARP 28 [0 ffffffff 0 0] ------- [REQUEST 0/0 0/1]
r 0.500106810 _79_ MAC  --- 0 ARP 28 [0 ffffffff 0 0] ------- [REQUEST 0/0 0/1]
r 0.500106810 _80_ MAC  --- 0 ARP 28 [0 ffffffff 0 0] ------- [REQUEST 0/0 0/1]
r 0.500106810 _81_ MAC  --- 0 ARP 28 [0 ffffffff 0 0] ------- [REQUEST 0/0 0/1]
r 0.500106810 _82_ MAC  --- 0 ARP 28 [0 ffffffff 0 0] ------- [REQUEST 0/0 0/1]
r 0.500106810 _83_ MAC  --- 0 ARP 28 [0 ffffffff 0 0] ------- [REQUEST 0/0 0/1]
r 0.500106810 _84_ MAC  --- 0 ARP 28 [0 ffffffff 0 0] ------- [REQUEST 0/0 0/1]
r 0.500106810 _85_ MAC  --- 0 ARP 28 [0 ffffffff 0 0] ------- [REQUEST 0/0 0/1]
r 0.500106810 _86_ MAC  --- 0 ARP 28 [0 ffffffff 0 0] ------- [REQUEST 0/0 0/1]
r 0.500106810 _87_ MAC  --- 0 ARP 28 [0 ffffffff 0 0] ------- [REQUEST 0/0 0/1]
r 0.500106810 _88_ MAC  --- 0 ARP 28 [0 ffffffff 0 0] ------- [REQUEST 0/0 0/1]
r 0.500106810 _89_ MAC  --- 0 ARP 28 [0 ffffffff 0 0] ------- [REQUEST 0/0 0/1]
r 0.500106810 _90_ MAC  --- 0 ARP 28 [0 ffffffff 0 0] ------- [REQUEST 0/0 0/1]
r 0.500106810 _91_ MAC  --- 0 ARP 28 [0 ffffffff 0 0] ------- [REQUEST 0/0 0/1]
r 0.500106810 _92_ MAC  --- 0 ARP 28 [0 ffffffff 0 0] ------- [REQUEST 0/0 0/1]
r 0.500106810 _93_ MAC  --- 0 ARP 28 [0 ffffffff 0 0] ------- [REQUEST 0/0 0/1]
r 0.500106810 _94_ MAC  --- 0 ARP 28 [0 ffffffff 0 0] ------- [REQUEST 0/0 0/1]
r 0.500106810 _95_ MAC  --- 0 ARP 28 [0 ffffffff 0 0] ------- [REQUEST 0/0 0/1]
r 0.500106810 _96_ MAC  --- 0 ARP 28 [0 ffffffff 0 0] ------- [REQUEST 0/0 0/1]
r 0.500106810 _97_ MAC  --- 0 ARP 28 [0 ffffffff 0 0] ------- [REQUEST 0/0 0/1]
r 0.500106810 _98_ MAC  --- 0 ARP 28 [0 ffffffff 0 0] ------- [REQUEST 0/0 0/1]
r 0.500106810 _99_ MAC  --- 0 ARP 28 [0 ffffffff 0 0] ------- [REQUEST 0/0 0/1]
s 0.500175000 _1_ MAC  --- 0 ARP 56 [3c 0 1 0] ------- [REPLY 1/1 0/0]
r 0.500275000 _0_ MAC  --- 0 ARP 28 [3c 0 1 0] ------- [REPLY 1/1 0/0]
s 0.500291000 _0_ MAC  --- 0 ACK 14 [0 1 0 0] 
r 0.500335000 _1_ MAC  --- 0 ACK 14 [0 1 0 0] 
s 0.500468000 _0_ MAC  --- 0 tcp 68 [3c 1 0 0] ------- [0:0 1:0 32 0] [0 0] 0 0
r 0.500584000 _1_ MAC  --- 0 tcp 40 [3c 1 0 0] ------- [0:0 1:0 32 0] [0 0] 1 0
s 0.500600000 _1_ MAC  --- 0 ACK 14 [0 0 0 0] 
r 0.500609000 _1_ AGT  --- 0 tcp 40 [3c 1 0 0] ------- [0:0 1:0 32 0] [0 0] 1 0
s 0.500609000 _1_ AGT  --- 1 ack 40 [0 0 0 0] ------- [1:0 0:0 32 0] [0 0] 0 0
r 0.500609000 _1_ RTR  --- 1 ack 40 [0 0 0 0] ------- [1:0 0:0 32 0] [0 0] 0 0
s 0.500609000 _1_ RTR  --- 1 ack 40 [0 0 0 0] ------- [1:0 0:0 32 0] [0 0] 0 0
r 0.500644000 _0_ MAC  --- 0 ACK 14 [0 0 0 0] 
s 0.500813000 _1_ MAC  --- 1 ack 68 [3c 0 1 0] ------- [1:0 0:0 32 0] [0 0] 0 0
r 0.500929000 _0_ MAC  --- 1 ack 40 [3c 0 1 0] ------- [1:0 0:0 32 0] [0 0] 1 0
s 0.500945000 _0_ MAC  --- 0 ACK 14 [0 1 0 0] 
r 0.500954000 _0_ AGT  --- 1 ack 40 [3c 0 1 0] ------- [1:0 0:0 32 0] [0 0] 1 0
s 0.500954000 _0_ AGT  --- 2 tcp 1040 [0 0 0 0] ------- [0:0 1:0 32 0] [1 0] 0 0
r 0.500954000 _0_ RTR  --- 2 tcp 1040 [0 0 0 0] ------- [0:0 1:0 32 0] [1 0] 0 0
s 0.500954000 _0_ RTR  --- 2 tcp 1040 [0 0 0 0] ------- [0:0 1:0 32 0] [1 0] 0 0
s 0.500954000 _0_ AGT  --- 3 tcp 1040 [0 0 0 0] ------- [0:0 1:0 32 0] [2 0] 0 0
r 0.500954000 _0_ RTR  --- 3 tcp 1040 [0 0 0 0] ------- [0:0 1:0 32 0] [2 0] 0 0
s 0.500954000 _0_ RTR  --- 3 tcp 1040 [0 0 0 0] ------- [0:0 1:0 32 0] [2 0] 0 0
r 0.500989000 _1_ MAC  --- 0 ACK 14 [0 1 0 0] 
s 0.501158000 _0_ MAC  --- 2 tcp 1068 [3c 1 0 0] ------- [0:0 1:0 32 0] [1 0] 0 0
r 0.502606000 _1_ MAC  --- 2 tcp 1040 [3c 1 0 0] ------- [0:0 1:0 32 0] [1 0] 1 0
s 0.502622000 _1_ MAC  --- 0 ACK 14 [0 0 0 0] 
r 0.502631000 _1_ AGT  --- 2 tcp 1040 [3c 1 0 0] ------- [0:0 1:0 32 0] [1 0] 1 0
s 0.502631000 _1_ AGT  --- 4 ack 40 [0 0 0 0] ------- [1:0 0:0 32 0] [1 0] 0 0
r 0.502631000 _1_ RTR  --- 4 ack 40 [0 0 0 0] ------- [1:0 0:0 32 0] [1 0] 0 0
s 0.502631000 _1_ RTR  --- 4 ack 40 [0 0 0 0] ------- [1:0 0:0 32 0] [1 0] 0 0
r 0.502666000 _0_ MAC  --- 0 ACK 14 [0 0 0 0] 
s 0.502700000 _0_ MAC  --- 3 tcp 1068 [3c 1 0 0] ------- [0:0 1:0 32 0] [2 0] 0 0
r 0.504148000 _1_ MAC  --- 3 tcp 1040 [3c 1 0 0] ------- [0:0 1:0 32 0] [2 0] 1 0
s 0.504164000 _1_ MAC  --- 0 ACK 14 [0 0 0 0] 
r 0.504173000 _1_ AGT  --- 3 tcp 1040 [3c 1 0 0] ------- [0:0 1:0 32 0] [2 0] 1 0
s 0.504173000 _1_ AGT  --- 5 ack 40 [0 0 0 0] ------- [1:0 0:0 32 0] [2 0] 0 0
r 0.504173000 _1_ RTR  --- 5 ack 40 [0 0 0 0] ------- [1:0 0:0 32 0] [2 0] 0 0
s 0.504173000 _1_ RTR  --- 5 ack 40 [0 0 0 0] ------- [1:0 0:0 32 0] [2 0] 0 0
r 0.504208000 _0_ MAC  --- 0 ACK 14 [0 0 0 0] 
s 0.504251000 _1_ MAC  --- 4 ack 68 [3c 0 1 0] ------- [1:0 0:0 32 0] [1 0] 0 0
r 0.504367000 _0_ MAC  --- 4 ack 40 [3c 0 1 0] ------- [1:0 0:0 32 0] [1 0] 1 0
s 0.504383000 _0_ MAC  --- 0 ACK 14 [0 1 0 0] 
r 0.504392000 _0_ AGT  --- 4 ack 40 [3c 0 1 0] ------- [1:0 0:0 32 0] [1 0] 1 0
s 0.504392000 _0_ AGT  --- 6 tcp 1040 [0 0 0 0] ------- [0:0 1:0 32 0] [3 0] 0 0
r 0.504392000 _0_ RTR  --- 6 tcp 1040 [0 0 0 0] ------- [0:0 1:0 32 0] [3 0] 0 0
s 0.504392000 _0_ RTR  --- 6 tcp 1040 [0 0 0 0] ------- [0:0 1:0 32 0] [3 0] 0 0
s 0.504392000 _0_ AGT  --- 7 tcp 1040 [0 0 0 0] ------- [0:0 1:0 32 0] [4 0] 0 0
r 0.504392000 _0_ RTR  --- 7 tcp 1040 [0 0 0 0] ------- [0:0 1:0 32 0] [4 0] 0 0
s 0.504392000 _0_ RTR  --- 7 tcp 1040 [0 0 0 0] ------- [0:0 1:0 32 0] [4 0] 0 0
r 0.504427000 _1_ MAC  --- 0 ACK 14 [0 1 0 0] 
s 0.504578000 _0_ MAC  --- 6 tcp 1068 [3c 1 0 0] ------- [0:0 1:0 32 0] [3 0] 0 0
r 0.506026000 _1_ MAC  --- 6 tcp 1040 [3c 1 0 0] ------- [0:0 1:0 32 0] [3 0] 1 0
s 0.506042000 _1_ MAC  --- 0 ACK 14 [0 0 0 0] 
r 0.506051000 _1_ AGT  --- 6 tcp 1040 [3c 1 0 0] ------- [0:0 1:0 32 0] [3 0] 1 0
s 0.506051000 _1_ AGT  --- 8 ack 40 [0 0 0 0] ------- [1:0 0:0 32 0] [3 0] 0 0
r 0.506051000 _1_ RTR  --- 8 ack 40 [0 0 0 0] ------- [1:0 0:0 32 0] [3 0] 0 0
s 0.506051000 _1_ RTR  --- 8 ack 40 [0 0 0 0] ------- [1:0 0:0 32 0] [3 0] 0 0
r 0.506086000 _0_ MAC  --- 0 ACK 14 [0 0 0 0] 
s 0.506138000 _1_ MAC  --- 5 ack 68 [3c 0 1 0] ------- [1:0 0:0 32 0] [2 0] 0 0
r 0.506254000 _0_ MAC  --- 5 ack 40 [3c 0 1 0] ------- [1:0 0:0 32 0] [2 0] 1 0
s 0.506270000 _0_ MAC  --- 0 ACK 14 [0 1 0 0] 
r 0.506279000 _0_ AGT  --- 5 ack 40 [3c 0 1 0] ------- [1:0 0:0 32 0] [2 0] 1 0
s 0.506279000 _0_ AGT  --- 9 tcp 1040 [0 0 0 0] ------- [0:0 1:0 32 0] [5 0] 0 0
r 0.506279000 _0_ RTR  --- 9 tcp 1040 [0 0 0 0] ------- [0:0 1:0 32 0] [5 0] 0 0
s 0.506279000 _0_ RTR  --- 9 tcp 1040 [0 0 0 0] ------- [0:0 1:0 32 0] [5 0] 0 0
s 0.506279000 _0_ AGT  --- 10 tcp 1040 [0 0 0 0] ------- [0:0 1:0 32 0] [6 0] 0 0
r 0.506279000 _0_ RTR  --- 10 tcp 1040 [0 0 0 0] ------- [0:0 1:0 32 0] [6 0] 0 0
s 0.506279000 _0_ RTR  --- 10 tcp 1040 [0 0 0 0] ------- [0:0 1:0 32 0] [6 0] 0 0
r 0.506314000 _1_ MAC  --- 0 ACK 14 [0 1 0 0] 
s 0.506384000 _1_ MAC  --- 8 ack 68 [3c 0 1 0] ------- [1:0 0:0 32 0] [3 0] 0 0
r 0.506500000 _0_ MAC  --- 8 ack 40 [3c 0 1 0] ------- [1:0 0:0 32 0] [3 0] 1 0
s 0.506516000 _0_ MAC  --- 0 ACK 14 [0 1 0 0] 
r 0.506525000 _0_ AGT  --- 8 ack 40 [3c 0 1 0] ------- [1:0 0:0 32 0] [3 0] 1 0
s 0.506525000 _0_ AGT  --- 11 tcp 1040 [0 0 0 0] ------- [0:0 1:0 32 0] [7 0] 0 0
r 0.506525000 _0_ RTR  --- 11 tcp 1040 [0 0 0 0] ------- [0:0 1:0 32 0] [7 0] 0 0
s 0.506525000 _0_ RTR  --- 11 tcp 1040 [0 0 0 0] ------- [0:0 1:0 32 0] [7 0] 0 0
s 0.506525000 _0_ AGT  --- 12 tcp 1040 [0 0 0 0] ------- [0:0 1:0 32 0] [8 0] 0 0
r 0.506525000 _0_ RTR  --- 12 tcp 1040 [0 0 0 0] ------- [0:0 1:0 32 0] [8 0] 0 0
s 0.506525000 _0_ RTR  --- 12 tcp 1040 [0 0 0 0] ------- [0:0 1:0 32 0] [8 0] 0 0
r 0.506560000 _1_ MAC  --- 0 ACK 14 [0 1 0 0] 
s 0.506621000 _0_ MAC  --- 7 tcp 1068 [3c 1 0 0] ------- [0:0 1:0 32 0] [4 0] 0 0
r 0.508069000 _1_ MAC  --- 7 tcp 1040 [3c 1 0 0] ------- [0:0 1:0 32 0] [4 0] 1 0
s 0.508085000 _1_ MAC  --- 0 ACK 14 [0 0 0 0] 
r 0.508094000 _1_ AGT  --- 7 tcp 1040 [3c 1 0 0] ------- [0:0 1:0 32 0] [4 0] 1 0
s 0.508094000 _1_ AGT  --- 13 ack 40 [0 0 0 0] ------- [1:0 0:0 32 0] [4 0] 0 0
r 0.508094000 _1_ RTR  --- 13 ack 40 [0 0 0 0] ------- [1:0 0:0 32 0] [4 0] 0 0
s 0.508094000 _1_ RTR  --- 13 ack 40 [0 0 0 0] ------- [1:0 0:0 32 0] [4 0] 0 0
r 0.508129000 _0_ MAC  --- 0 ACK 14 [0 0 0 0] 
s 0.508235000 _0_ MAC  --- 9 tcp 1068 [3c 1 0 0] ------- [0:0 1:0 32 0] [5 0] 0 0
r 0.509683000 _1_ MAC  --- 9 tcp 1040 [3c 1 0 0] ------- [0:0 1:0 32 0] [5 0] 1 0
s 0.509699000 _1_ MAC  --- 0 ACK 14 [0 0 0 0] 
r 0.509708000 _1_ AGT  --- 9 tcp 1040 [3c 1 0 0] ------- [0:0 1:0 32 0] [5 0] 1 0
s 0.509708000 _1_ AGT  --- 14 ack 40 [0 0 0 0] ------- [1:0 0:0 32 0] [5 0] 0 0
r 0.509708000 _1_ RTR  --- 14 ack 40 [0 0 0 0] ------- [1:0 0:0 32 0] [5 0] 0 0
s 0.509708000 _1_ RTR  --- 14 ack 40 [0 0 0 0] ------- [1:0 0:0 32 0] [5 0] 0 0
r 0.509743000 _0_ MAC  --- 0 ACK 14 [0 0 0 0] 
s 0.509804000 _0_ MAC  --- 10 tcp 1068 [3c 1 0 0] ------- [0:0 1:0 32 0] [6 0] 0 0
r 0.511252000 _1_ MAC  --- 10 tcp 1040 [3c 1 0 0] ------- [0:0 1:0 32 0] [6 0] 1 0
s 0.511268000 _1_ MAC  --- 0 ACK 14 [0 0 0 0] 
r 0.511277000 _1_ AGT  --- 10 tcp 1040 [3c 1 0 0] ------- [0:0 1:0 32 0] [6 0] 1 0
s 0.511277000 _1_ AGT  --- 15 ack 40 [0 0 0 0] ------- [1:0 0:0 32 0] [6 0] 0 0
r 0.511277000 _1_ RTR  --- 15 ack 40 [0 0 0 0] ------- [1:0 0:0 32 0] [6 0] 0 0
s 0.511277000 _1_ RTR  --- 15 ack 40 [0 0 0 0] ------- [1:0 0:0 32 0] [6 0] 0 0
r 0.511312000 _0_ MAC  --- 0 ACK 14 [0 0 0 0] 
s 0.511364000 _1_ MAC  --- 13 ack 68 [3c 0 1 0] ------- [1:0 0:0 32 0] [4 0] 0 0
r 0.511480000 _0_ MAC  --- 13 ack 40 [3c 0 1 0] ------- [1:0 0:0 32 0] [4 0] 1 0
s 0.511496000 _0_ MAC  --- 0 ACK 14 [0 1 0 0] 
r 0.511505000 _0_ AGT  --- 13 ack 40 [3c 0 1 0] ------- [1:0 0:0 32 0] [4 0] 1 0
s 0.511505000 _0_ AGT  --- 16 tcp 1040 [0 0 0 0] ------- [0:0 1:0 32 0] [9 0] 0 0
r 0.511505000 _0_ RTR  --- 16 tcp 1040 [0 0 0 0] ------- [0:0 1:0 32 0] [9 0] 0 0
s 0.511505000 _0_ RTR  --- 16 tcp 1040 [0 0 0 0] ------- [0:0 1:0 32 0] [9 0] 0 0
s 0.511505000 _0_ AGT  --- 17 tcp 1040 [0 0 0 0] ------- [0:0 1:0 32 0] [10 0] 0 0
r 0.511505000 _0_ RTR  --- 17 tcp 1040 [0 0 0 0] ------- [0:0 1:0 32 0] [10 0] 0 0
s 0.511505000 _0_ RTR  --- 17 tcp 1040 [0 0 0 0] ------- [0:0 1:0 32 0] [10 0] 0 0
r 0.511540000 _1_ MAC  --- 0 ACK 14 [0 1 0 0] 
s 0.511574000 _1_ MAC  --- 14 ack 68 [3c 0 1 0] ------- [1:0 0:0 32 0] [5 0] 0 0
r 0.511690000 _0_ MAC  --- 14 ack 40 [3c 0 1 0] ------- [1:0 0:0 32 0] [5 0] 1 0
s 0.511706000 _0_ MAC  --- 0 ACK 14 [0 1 0 0] 
r 0.511715000 _0_ AGT  --- 14 ack 40 [3c 0 1 0] ------- [1:0 0:0 32 0] [5 0] 1 0
s 0.511715000 _0_ AGT  --- 18 tcp 1040 [0 0 0 0] ------- [0:0 1:0 32 0] [11 0] 0 0
r 0.511715000 _0_ RTR  --- 18 tcp 1040 [0 0 0 0] ------- [0:0 1:0 32 0] [11 0] 0 0
s 0.511715000 _0_ RTR  --- 18 tcp 1040 [0 0 0 0] ------- [0:0 1:0 32 0] [11 0] 0 0
s 0.511715000 _0_ AGT  --- 19 tcp 1040 [0 0 0 0] ------- [0:0 1:0 32 0] [12 0] 0 0
r 0.511715000 _0_ RTR  --- 19 tcp 1040 [0 0 0 0] ------- [0:0 1:0 32 0] [12 0] 0 0
s 0.511715000 _0_ RTR  --- 19 tcp 1040 [0 0 0 0] ------- [0:0 1:0 32 0] [12 0] 0 0
r 0.511750000 _1_ MAC  --- 0 ACK 14 [0 1 0 0] 
s 0.511802000 _1_ MAC  --- 15 ack 68 [3c 0 1 0] ------- [1:0 0:0 32 0] [6 0] 0 0
r 0.511918000 _0_ MAC  --- 15 ack 40 [3c 0 1 0] ------- [1:0 0:0 32 0] [6 0] 1 0
s 0.511934000 _0_ MAC  --- 0 ACK 14 [0 1 0 0] 
r 0.511943000 _0_ AGT  --- 15 ack 40 [3c 0 1 0] ------- [1:0 0:0 32 0] [6 0] 1 0
s 0.511943000 _0_ AGT  --- 20 tcp 1040 [0 0 0 0] ------- [0:0 1:0 32 0] [13 0] 0 0
r 0.511943000 _0_ RTR  --- 20 tcp 1040 [0 0 0 0] ------- [0:0 1:0 32 0] [13 0] 0 0
s 0.511943000 _0_ RTR  --- 20 tcp 1040 [0 0 0 0] ------- [0:0 1:0 32 0] [13 0] 0 0
s 0.511943000 _0_ AGT  --- 21 tcp 1040 [0 0 0 0] ------- [0:0 1:0 32 0] [14 0] 0 0
r 0.511943000 _0_ RTR  --- 21 tcp 1040 [0 0 0 0] ------- [0:0 1:0 32 0] [14 0] 0 0
s 0.511943000 _0_ RTR  --- 21 tcp 1040 [0 0 0 0] ------- [0:0 1:0 32 0] [14 0] 0 0
r 0.511978000 _1_ MAC  --- 0 ACK 14 [0 1 0 0] 
s 0.512066000 _0_ MAC  --- 11 tcp 1068 [3c 1 0 0] ------- [0:0 1:0 32 0] [7 0] 0 0
r 0.513514000 _1_ MAC  --- 11 tcp 1040 [3c 1 0 0] ------- [0:0 1:0 32 0] [7 0] 1 0
s 0.513530000 _1_ MAC  --- 0 ACK 14 [0 0 0 0] 
r 0.513539000 _1_ AGT  --- 11 tcp 1040 [3c 1 0 0] ------- [0:0 1:0 32 0] [7 0] 1 0
s 0.513539000 _1_ AGT  --- 22 ack 40 [0 0 0 0] ------- [1:0 0:0 32 0] [7 0] 0 0
r 0.513539000 _1_ RTR  --- 22 ack 40 [0 0 0 0] ------- [1:0 0:0 32 0] [7 0] 0 0
s 0.513539000 _1_ RTR  --- 22 ack 40 [0 0 0 0] ------- [1:0 0:0 32 0] [7 0] 0 0
r 0.513574000 _0_ MAC  --- 0 ACK 14 [0 0 0 0] 
s 0.513617000 _0_ MAC  --- 12 tcp 1068 [3c 1 0 0] ------- [0:0 1:0 32 0] [8 0] 0 0
r 0.515065000 _1_ MAC  --- 12 tcp 1040 [3c 1 0 0] ------- [0:0 1:0 32 0] [8 0] 1 0
s 0.515081000 _1_ MAC  --- 0 ACK 14 [0 0 0 0] 
r 0.515090000 _1_ AGT  --- 12 tcp 1040 [3c 1 0 0] ------- [0:0 1:0 32 0] [8 0] 1 0
s 0.515090000 _1_ AGT  --- 23 ack 40 [0 0 0 0] ------- [1:0 0:0 32 0] [8 0] 0 0
r 0.515090000 _1_ RTR  --- 23 ack 40 [0 0 0 0] ------- [1:0 0:0 32 0] [8 0] 0 0
s 0.515090000 _1_ RTR  --- 23 ack 40 [0 0 0 0] ------- [1:0 0:0 32 0] [8 0] 0 0
r 0.515125000 _0_ MAC  --- 0 ACK 14 [0 0 0 0] 
s 0.515168000 _0_ MAC  --- 16 tcp 1068 [3c 1 0 0] ------- [0:0 1:0 32 0] [9 0] 0 0
r 0.516616000 _1_ MAC  --- 16 tcp 1040 [3c 1 0 0] ------- [0:0 1:0 32 0] [9 0] 1 0
s 0.516632000 _1_ MAC  --- 0 ACK 14 [0 0 0 0] 
r 0.516641000 _1_ AGT  --- 16 tcp 1040 [3c 1 0 0] ------- [0:0 1:0 32 0] [9 0] 1 0
s 0.516641000 _1_ AGT  --- 24 ack 40 [0 0 0 0] ------- [1:0 0:0 32 0] [9 0] 0 0
r 0.516641000 _1_ RTR  --- 24 ack 40 [0 0 0 0] ------- [1:0 0:0 32 0] [9 0] 0 0
s 0.516641000 _1_ RTR  --- 24 ack 40 [0 0 0 0] ------- [1:0 0:0 32 0] [9 0] 0 0
r 0.516676000 _0_ MAC  --- 0 ACK 14 [0 0 0 0] 
s 0.516773000 _1_ MAC  --- 22 ack 68 [3c 0 1 0] ------- [1:0 0:0 32 0] [7 0] 0 0
r 0.516889000 _0_ MAC  --- 22 ack 40 [3c 0 1 0] ------- [1:0 0:0 32 0] [7 0] 1 0
s 0.516905000 _0_ MAC  --- 0 ACK 14 [0 1 0 0] 
r 0.516914000 _0_ AGT  --- 22 ack 40 [3c 0 1 0] ------- [1:0 0:0 32 0] [7 0] 1 0
s 0.516914000 _0_ AGT  --- 25 tcp 1040 [0 0 0 0] ------- [0:0 1:0 32 0] [15 0] 0 0
r 0.516914000 _0_ RTR  --- 25 tcp 1040 [0 0 0 0] ------- [0:0 1:0 32 0] [15 0] 0 0
s 0.516914000 _0_ RTR  --- 25 tcp 1040 [0 0 0 0] ------- [0:0 1:0 32 0] [15 0] 0 0
s 0.516914000 _0_ AGT  --- 26 tcp 1040 [0 0 0 0] ------- [0:0 1:0 32 0] [16 0] 0 0
r 0.516914000 _0_ RTR  --- 26 tcp 1040 [0 0 0 0] ------- [0:0 1:0 32 0] [16 0] 0 0
s 0.516914000 _0_ RTR  --- 26 tcp 1040 [0 0 0 0] ------- [0:0 1:0 32 0] [16 0] 0 0
r 0.516949000 _1_ MAC  --- 0 ACK 14 [0 1 0 0] 
s 0.517046000 _0_ MAC  --- 17 tcp 1068 [3c 1 0 0] ------- [0:0 1:0 32 0] [10 0] 0 0
r 0.518494000 _1_ MAC  --- 17 tcp 1040 [3c 1 0 0] ------- [0:0 1:0 32 0] [10 0] 1 0
s 0.518510000 _1_ MAC  --- 0 ACK 14 [0 0 0 0] 
r 0.518519000 _1_ AGT  --- 17 tcp 1040 [3c 1 0 0] ------- [0:0 1:0 32 0] [10 0] 1 0
s 0.518519000 _1_ AGT  --- 27 ack 40 [0 0 0 0] ------- [1:0 0:0 32 0] [10 0] 0 0
r 0.518519000 _1_ RTR  --- 27 ack 40 [0 0 0 0] ------- [1:0 0:0 32 0] [10 0] 0 0
s 0.518519000 _1_ RTR  --- 27 ack 40 [0 0 0 0] ------- [1:0 0:0 32 0] [10 0] 0 0
r 0.518554000 _0_ MAC  --- 0 ACK 14 [0 0 0 0] 
s 0.518642000 _1_ MAC  --- 23 ack 68 [3c 0 1 0] ------- [1:0 0:0 32 0] [8 0] 0 0
r 0.518758000 _0_ MAC  --- 23 ack 40 [3c 0 1 0] ------- [1:0 0:0 32 0] [8 0] 1 0
s 0.518774000 _0_ MAC  --- 0 ACK 14 [0 1 0 0] 
r 0.518783000 _0_ AGT  --- 23 ack 40 [3c 0 1 0] ------- [1:0 0:0 32 0] [8 0] 1 0
s 0.518783000 _0_ AGT  --- 28 tcp 1040 [0 0 0 0] ------- [0:0 1:0 32 0] [17 0] 0 0
r 0.518783000 _0_ RTR  --- 28 tcp 1040 [0 0 0 0] ------- [0:0 1:0 32 0] [17 0] 0 0
s 0.518783000 _0_ RTR  --- 28 tcp 1040 [0 0 0 0] ------- [0:0 1:0 32 0] [17 0] 0 0
s 0.518783000 _0_ AGT  --- 29 tcp 1040 [0 0 0 0] ------- [0:0 1:0 32 0] [18 0] 0 0
r 0.518783000 _0_ RTR  --- 29 tcp 1040 [0 0 0 0] ------- [0:0 1:0 32 0] [18 0] 0 0
s 0.518783000 _0_ RTR  --- 29 tcp 1040 [0 0 0 0] ------- [0:0 1:0 32 0] [18 0] 0 0
r 0.518818000 _1_ MAC  --- 0 ACK 14 [0 1 0 0] 
s 0.518861000 _1_ MAC  --- 24 ack 68 [3c 0 1 0] ------- [1:0 0:0 32 0] [9 0] 0 0
r 0.518977000 _0_ MAC  --- 24 ack 40 [3c 0 1 0] ------- [1:0 0:0 32 0] [9 0] 1 0
s 0.518993000 _0_ MAC  --- 0 ACK 14 [0 1 0 0] 
r 0.519002000 _0_ AGT  --- 24 ack 40 [3c 0 1 0] ------- [1:0 0:0 32 0] [9 0] 1 0
s 0.519002000 _0_ AGT  --- 30 tcp 1040 [0 0 0 0] ------- [0:0 1:0 32 0] [19 0] 0 0
r 0.519002000 _0_ RTR  --- 30 tcp 1040 [0 0 0 0] ------- [0:0 1:0 32 0] [19 0] 0 0
s 0.519002000 _0_ RTR  --- 30 tcp 1040 [0 0 0 0] ------- [0:0 1:0 32 0] [19 0] 0 0
s 0.519002000 _0_ AGT  --- 31 tcp 1040 [0 0 0 0] ------- [0:0 1:0 32 0] [20 0] 0 0
r 0.519002000 _0_ RTR  --- 31 tcp 1040 [0 0 0 0] ------- [0:0 1:0 32 0] [20 0] 0 0
s 0.519002000 _0_ RTR  --- 31 tcp 1040 [0 0 0 0] ------- [0:0 1:0 32 0] [20 0] 0 0
r 0.519037000 _1_ MAC  --- 0 ACK 14 [0 1 0 0] 
s 0.519152000 _0_ MAC  --- 18 tcp 1068 [3c 1 0 0] ------- [0:0 1:0 32 0] [11 0] 0 0
r 0.520600000 _1_ MAC  --- 18 tcp 1040 [3c 1 0 0] ------- [0:0 1:0 32 0] [11 0] 1 0
s 0.520616000 _1_ MAC  --- 0 ACK 14 [0 0 0 0] 
r 0.520625000 _1_ AGT  --- 18 tcp 1040 [3c 1 0 0] ------- [0:0 1:0 32 0] [11 0] 1 0
s 0.520625000 _1_ AGT  --- 32 ack 40 [0 0 0 0] ------- [1:0 0:0 32 0] [11 0] 0 0
r 0.520625000 _1_ RTR  --- 32 ack 40 [0 0 0 0] ------- [1:0 0:0 32 0] [11 0] 0 0
s 0.520625000 _1_ RTR  --- 32 ack 40 [0 0 0 0] ------- [1:0 0:0 32 0] [11 0] 0 0
r 0.520660000 _0_ MAC  --- 0 ACK 14 [0 0 0 0] 
s 0.520739000 _1_ MAC  --- 27 ack 68 [3c 0 1 0] ------- [1:0 0:0 32 0] [10 0] 0 0
r 0.520855000 _0_ MAC  --- 27 ack 40 [3c 0 1 0] ------- [1:0 0:0 32 0] [10 0] 1 0
s 0.520871000 _0_ MAC  --- 0 ACK 14 [0 1 0 0] 
r 0.520880000 _0_ AGT  --- 27 ack 40 [3c 0 1 0] ------- [1:0 0:0 32 0] [10 0] 1 0
s 0.520880000 _0_ AGT  --- 33 tcp 1040 [0 0 0 0] ------- [0:0 1:0 32 0] [21 0] 0 0
r 0.520880000 _0_ RTR  --- 33 tcp 1040 [0 0 0 0] ------- [0:0 1:0 32 0] [21 0] 0 0
s 0.520880000 _0_ RTR  --- 33 tcp 1040 [0 0 0 0] ------- [0:0 1:0 32 0] [21 0] 0 0
s 0.520880000 _0_ AGT  --- 34 tcp 1040 [0 0 0 0] ------- [0:0 1:0 32 0] [22 0] 0 0
r 0.520880000 _0_ RTR  --- 34 tcp 1040 [0 0 0 0] ------- [0:0 1:0 32 0] [22 0] 0 0
s 0.520880000 _0_ RTR  --- 34 tcp 1040 [0 0 0 0] ------- [0:0 1:0 32 0] [22 0] 0 0
r 0.520915000 _1_ MAC  --- 0 ACK 14 [0 1 0 0] 
s 0.520985000 _1_ MAC  --- 32 ack 68 [3c 0 1 0] ------- [1:0 0:0 32 0] [11 0] 0 0
r 0.521101000 _0_ MAC  --- 32 ack 40 [3c 0 1 0] ------- [1:0 0:0 32 0] [11 0] 1 0
s 0.521117000 _0_ MAC  --- 0 ACK 14 [0 1 0 0] 
r 0.521126000 _0_ AGT  --- 32 ack 40 [3c 0 1 0] ------- [1:0 0:0 32 0] [11 0] 1 0
s 0.521126000 _0_ AGT  --- 35 tcp 1040 [0 0 0 0] ------- [0:0 1:0 32 0] [23 0] 0 0
r 0.521126000 _0_ RTR  --- 35 tcp 1040 [0 0 0 0] ------- [0:0 1:0 32 0] [23 0] 0 0
s 0.521126000 _0_ RTR  --- 35 tcp 1040 [0 0 0 0] ------- [0:0 1:0 32 0] [23 0] 0 0
s 0.521126000 _0_ AGT  --- 36 tcp 1040 [0 0 0 0] ------- [0:0 1:0 32 0] [24 0] 0 0
r 0.521126000 _0_ RTR  --- 36 tcp 1040 [0 0 0 0] ------- [0:0 1:0 32 0] [24 0] 0 0
s 0.521126000 _0_ RTR  --- 36 tcp 1040 [0 0 0 0] ------- [0:0 1:0 32 0] [24 0] 0 0
r 0.521161000 _1_ MAC  --- 0 ACK 14 [0 1 0 0] 
s 0.521213000 _0_ MAC  --- 19 tcp 1068 [3c 1 0 0] ------- [0:0 1:0 32 0] [12 0] 0 0
r 0.522661000 _1_ MAC  --- 19 tcp 1040 [3c 1 0 0] ------- [0:0 1:0 32 0] [12 0] 1 0
s 0.522677000 _1_ MAC  --- 0 ACK 14 [0 0 0 0] 
r 0.522686000 _1_ AGT  --- 19 tcp 1040 [3c 1 0 0] ------- [0:0 1:0 32 0] [12 0] 1 0
s 0.522686000 _1_ AGT  --- 37 ack 40 [0 0 0 0] ------- [1:0 0:0 32 0] [12 0] 0 0
r 0.522686000 _1_ RTR  --- 37 ack 40 [0 0 0 0] ------- [1:0 0:0 32 0] [12 0] 0 0
s 0.522686000 _1_ RTR  --- 37 ack 40 [0 0 0 0] ------- [1:0 0:0 32 0] [12 0] 0 0
r 0.522721000 _0_ MAC  --- 0 ACK 14 [0 0 0 0] 
s 0.522845000 _1_ MAC  --- 37 ack 68 [3c 0 1 0] ------- [1:0 0:0 32 0] [12 0] 0 0
r 0.522961000 _0_ MAC  --- 37 ack 40 [3c 0 1 0] ------- [1:0 0:0 32 0] [12 0] 1 0
s 0.522977000 _0_ MAC  --- 0 ACK 14 [0 1 0 0] 
r 0.522986000 _0_ AGT  --- 37 ack 40 [3c 0 1 0] ------- [1:0 0:0 32 0] [12 0] 1 0
s 0.522986000 _0_ AGT  --- 38 tcp 1040 [0 0 0 0] ------- [0:0 1:0 32 0] [25 0] 0 0
r 0.522986000 _0_ RTR  --- 38 tcp 1040 [0 0 0 0] ------- [0:0 1:0 32 0] [25 0] 0 0
s 0.522986000 _0_ RTR  --- 38 tcp 1040 [0 0 0 0] ------- [0:0 1:0 32 0] [25 0] 0 0
s 0.522986000 _0_ AGT  --- 39 tcp 1040 [0 0 0 0] ------- [0:0 1:0 32 0] [26 0] 0 0
r 0.522986000 _0_ RTR  --- 39 tcp 1040 [0 0 0 0] ------- [0:0 1:0 32 0] [26 0] 0 0
s 0.522986000 _0_ RTR  --- 39 tcp 1040 [0 0 0 0] ------- [0:0 1:0 32 0] [26 0] 0 0
r 0.523021000 _1_ MAC  --- 0 ACK 14 [0 1 0 0] 
s 0.523064000 _0_ MAC  --- 20 tcp 1068 [3c 1 0 0] ------- [0:0 1:0 32 0] [13 0] 0 0
r 0.524512000 _1_ MAC  --- 20 tcp 1040 [3c 1 0 0] ------- [0:0 1:0 32 0] [13 0] 1 0
s 0.524528000 _1_ MAC  --- 0 ACK 14 [0 0 0 0] 
r 0.524537000 _1_ AGT  --- 20 tcp 1040 [3c 1 0 0] ------- [0:0 1:0 32 0] [13 0] 1 0
s 0.524537000 _1_ AGT  --- 40 ack 40 [0 0 0 0] ------- [1:0 0:0 32 0] [13 0] 0 0
r 0.524537000 _1_ RTR  --- 40 ack 40 [0 0 0 0] ------- [1:0 0:0 32 0] [13 0] 0 0
s 0.524537000 _1_ RTR  --- 40 ack 40 [0 0 0 0] ------- [1:0 0:0 32 0] [13 0] 0 0
r 0.524572000 _0_ MAC  --- 0 ACK 14 [0 0 0 0] 
s 0.524624000 _1_ MAC  --- 40 ack 68 [3c 0 1 0] ------- [1:0 0:0 32 0] [13 0] 0 0
r 0.524740000 _0_ MAC  --- 40 ack 40 [3c 0 1 0] ------- [1:0 0:0 32 0] [13 0] 1 0
s 0.524756000 _0_ MAC  --- 0 ACK 14 [0 1 0 0] 
r 0.524765000 _0_ AGT  --- 40 ack 40 [3c 0 1 0] ------- [1:0 0:0 32 0] [13 0] 1 0
s 0.524765000 _0_ AGT  --- 41 tcp 1040 [0 0 0 0] ------- [0:0 1:0 32 0] [27 0] 0 0
r 0.524765000 _0_ RTR  --- 41 tcp 1040 [0 0 0 0] ------- [0:0 1:0 32 0] [27 0] 0 0
s 0.524765000 _0_ RTR  --- 41 tcp 1040 [0 0 0 0] ------- [0:0 1:0 32 0] [27 0] 0 0
s 0.524765000 _0_ AGT  --- 42 tcp 1040 [0 0 0 0] ------- [0:0 1:0 32 0] [28 0] 0 0
r 0.524765000 _0_ RTR  --- 42 tcp 1040 [0 0 0 0] ------- [0:0 1:0 32 0] [28 0] 0 0
s 0.524765000 _0_ RTR  --- 42 tcp 1040 [0 0 0 0] ------- [0:0 1:0 32 0] [28 0] 0 0
r 0.524800000 _1_ MAC  --- 0 ACK 14 [0 1 0 0] 
s 0.524942000 _0_ MAC  --- 21 tcp 1068 [3c 1 0 0] ------- [0:0 1:0 32 0] [14 0] 0 0
r 0.526390000 _1_ MAC  --- 21 tcp 1040 [3c 1 0 0] ------- [0:0 1:0 32 0] [14 0] 1 0
s 0.526406000 _1_ MAC  --- 0 ACK 14 [0 0 0 0] 
r 0.526415000 _1_ AGT  --- 21 tcp 1040 [3c 1 0 0] ------- [0:0 1:0 32 0] [14 0] 1 0
s 0.526415000 _1_ AGT  --- 43 ack 40 [0 0 0 0] ------- [1:0 0:0 32 0] [14 0] 0 0
r 0.526415000 _1_ RTR  --- 43 ack 40 [0 0 0 0] ------- [1:0 0:0 32 0] [14 0] 0 0
s 0.526415000 _1_ RTR  --- 43 ack 40 [0 0 0 0] ------- [1:0 0:0 32 0] [14 0] 0 0
r 0.526450000 _0_ MAC  --- 0 ACK 14 [0 0 0 0] 
s 0.526502000 _1_ MAC  --- 43 ack 68 [3c 0 1 0] ------- [1:0 0:0 32 0] [14 0] 0 0
r 0.526618000 _0_ MAC  --- 43 ack 40 [3c 0 1 0] ------- [1:0 0:0 32 0] [14 0] 1 0
s 0.526634000 _0_ MAC  --- 0 ACK 14 [0 1 0 0] 
r 0.526643000 _0_ AGT  --- 43 ack 40 [3c 0 1 0] ------- [1:0 0:0 32 0] [14 0] 1 0
s 0.526643000 _0_ AGT  --- 44 tcp 1040 [0 0 0 0] ------- [0:0 1:0 32 0] [29 0] 0 0
r 0.526643000 _0_ RTR  --- 44 tcp 1040 [0 0 0 0] ------- [0:0 1:0 32 0] [29 0] 0 0
s 0.526643000 _0_ RTR  --- 44 tcp 1040 [0 0 0 0] ------- [0:0 1:0 32 0] [29 0] 0 0
s 0.526643000 _0_ AGT  --- 45 tcp 1040 [0 0 0 0] ------- [0:0 1:0 32 0] [30 0] 0 0